[ atomtypes ]
;name   bond_type     mass     charge   ptype   sigma         epsilon       Amb
 c3       c3          0.00000  0.00000   A     3.39771e-01   4.51035e-01
 c6       c6          0.00000  0.00000   A     3.39771e-01   4.51035e-01
 oh       oh          0.00000  0.00000   A     3.24287e-01   3.89112e-01
 hc       hc          0.00000  0.00000   A     2.60018e-01   8.70272e-02
 h1       h1          0.00000  0.00000   A     2.42200e-01   8.70272e-02
 ho       ho          0.00000  0.00000   A     5.37925e-02   1.96648e-02
