JZ4
    28
  24.3290000 -24.0030000  -0.1310000  21.3630000 -27.2350000  -4.1970000
  21.9840000 -26.7460000  -5.5050000  22.9690000 -25.5980000  -5.3210000
  22.4050000 -24.5060000  -4.4120000  21.9660000 -26.5750000  -2.9610000
  21.8980000 -25.0400000  -3.0480000  22.4640000 -24.3520000  -1.7870000
  23.9000000 -24.7210000  -1.4040000  23.3480000 -23.4500000  -4.2820000
  25.3600000 -24.2660000   0.1230000  24.2730000 -22.9170000  -0.2520000
  23.6910000 -24.2900000   0.7110000  20.2840000 -27.0430000  -4.2180000
  21.4750000 -28.3240000  -4.1220000  22.4890000 -27.5780000  -6.0100000
  21.1800000 -26.4290000  -6.1810000  23.9110000 -25.9780000  -4.9050000
  23.2370000 -25.1730000  -6.2960000  21.5450000 -24.0600000  -4.9280000
  21.4330000 -26.9220000  -2.0680000  23.0030000 -26.9140000  -2.8580000
  20.8230000 -24.7980000  -3.0350000  22.3790000 -23.2640000  -1.9000000
  21.8110000 -24.6130000  -0.9420000  24.5970000 -24.4640000  -2.2050000
  23.9880000 -25.7980000  -1.2310000  24.2340000 -23.8400000  -4.1900000
