%VERSION  VERSION_STAMP = V0001.000  DATE = 07/28/26  11:49:19                  
%FLAG TITLE                                                                     
%FORMAT(20a4)                                                                   
JZ4                                                                             
%FLAG POINTERS                                                                  
%FORMAT(10I8)                                                                   
      28       5      18      10      43      12      70      14       0       0
     166       1      10      12      14       8      14       8       6       0
       0       0       0       0       0       0       0       0      28       0
       0
%FLAG ATOM_NAME                                                                 
%FORMAT(20a4)                                                                   
C   C1  C2  C3  C4  C5  C6  C7  C8  O   H   H1  H2  H3  H4  H5  H6  H7  H8  H9  
H10 H11 H12 H13 H14 H15 H16 H17 
%FLAG CHARGE                                                                    
%FORMAT(5E16.8)                                                                 
 -1.73294073E+00 -1.42862832E+00 -1.31929452E+00 -1.99351962E+00  2.66227803E+00
 -1.33751682E+00 -1.61631801E+00 -1.46507292E+00 -1.50151752E+00 -1.08750686E+01
  6.26245784E-01  6.26245784E-01  6.26245784E-01  7.32536460E-01  7.32536460E-01
  7.32536460E-01  7.32536460E-01  8.41870260E-01  8.41870260E-01  1.28831661E+00
  7.78092210E-01  7.78092210E-01  9.05648310E-01  8.78314860E-01  8.78314860E-01
  6.77869560E-01  6.77869560E-01  7.27069770E+00
%FLAG ATOMIC_NUMBER                                                             
%FORMAT(10I8)                                                                   
       6       6       6       6       6       6       6       6       6       8
       1       1       1       1       1       1       1       1       1       1
       1       1       1       1       1       1       1       1
%FLAG MASS                                                                      
%FORMAT(5E16.8)                                                                 
  1.20100000E+01  1.20100000E+01  1.20100000E+01  1.20100000E+01  1.20100000E+01
  1.20100000E+01  1.20100000E+01  1.20100000E+01  1.20100000E+01  1.60000000E+01
  1.00800000E+00  1.00800000E+00  1.00800000E+00  1.00800000E+00  1.00800000E+00
  1.00800000E+00  1.00800000E+00  1.00800000E+00  1.00800000E+00  1.00800000E+00
  1.00800000E+00  1.00800000E+00  1.00800000E+00  1.00800000E+00  1.00800000E+00
  1.00800000E+00  1.00800000E+00  1.00800000E+00
%FLAG ATOM_TYPE_INDEX                                                           
%FORMAT(10I8)                                                                   
       1       1       1       1       1       1       1       1       1       2
       3       3       3       3       3       3       3       3       3       4
       3       3       3       3       3       3       3       5
%FLAG NUMBER_EXCLUDED_ATOMS                                                     
%FORMAT(10I8)                                                                   
      10      15      14      14      16      14      16      13       8       5
       4       3       2       5       4       3       2       2       1       2
       2       1       2       3       2       1       1       1
%FLAG NONBONDED_PARM_INDEX                                                      
%FORMAT(10I8)                                                                   
       1       2       4       7      11       2       3       5       8      12
       4       5       6       9      13       7       8       9      10      14
      11      12      13      14      15
%FLAG RESIDUE_LABEL                                                             
%FORMAT(20a4)                                                                   
UNL 
%FLAG RESIDUE_POINTER                                                           
%FORMAT(10I8)                                                                   
       1
%FLAG BOND_FORCE_CONSTANT                                                       
%FORMAT(5E16.8)                                                                 
  2.28890000E+02  3.45250000E+02  2.26810000E+02  3.42750000E+02  2.85250000E+02
  3.42020000E+02  2.23800000E+02  5.35510000E+02
%FLAG BOND_EQUIL_VALUE                                                          
%FORMAT(5E16.8)                                                                 
  1.53540000E+00  1.09620000E+00  1.53840000E+00  1.09790000E+00  1.42410000E+00
  1.09840000E+00  1.54280000E+00  9.72500000E-01
%FLAG ANGLE_FORCE_CONSTANT                                                      
%FORMAT(5E16.8)                                                                 
  5.98700000E+01  4.32700000E+01  6.01800000E+01  4.32300000E+01  7.65600000E+01
  4.32800000E+01  6.52300000E+01  5.99900000E+01  5.93900000E+01  4.28900000E+01
  4.35200000E+01  5.63900000E+01  3.58000000E+01  3.59300000E+01
%FLAG ANGLE_EQUIL_VALUE                                                         
%FORMAT(5E16.8)                                                                 
  1.96576518E+00  1.91427794E+00  1.93836350E+00  1.91026369E+00  1.92073567E+00
  1.90555129E+00  1.86872483E+00  1.94482122E+00  1.98845447E+00  1.93085858E+00
  1.87553162E+00  1.91916487E+00  1.88024401E+00  1.86087085E+00
%FLAG DIHEDRAL_FORCE_CONSTANT                                                   
%FORMAT(5E16.8)                                                                 
  5.20000000E-01  1.30000000E-01  1.80000000E-01  1.55555556E-01  6.00000000E-02
  9.00000000E-02  1.20000000E-01  1.23000000E-01
%FLAG DIHEDRAL_PERIODICITY                                                      
%FORMAT(5E16.8)                                                                 
  3.00000000E+00  3.00000000E+00  3.00000000E+00  3.00000000E+00  3.00000000E+00
  3.00000000E+00  3.00000000E+00  3.00000000E+00
%FLAG DIHEDRAL_PHASE                                                            
%FORMAT(5E16.8)                                                                 
  0.00000000E+00  0.00000000E+00  0.00000000E+00  0.00000000E+00  0.00000000E+00
  0.00000000E+00  0.00000000E+00  0.00000000E+00
%FLAG SCEE_SCALE_FACTOR                                                         
%FORMAT(5E16.8)                                                                 
  1.20000000E+00  1.20000000E+00  1.20000000E+00  1.20000000E+00  1.20000000E+00
  1.20000000E+00  1.20000000E+00  1.20000000E+00
%FLAG SCNB_SCALE_FACTOR                                                         
%FORMAT(5E16.8)                                                                 
  2.00000000E+00  2.00000000E+00  2.00000000E+00  2.00000000E+00  2.00000000E+00
  2.00000000E+00  2.00000000E+00  2.00000000E+00
%FLAG SOLTY                                                                     
%FORMAT(5E16.8)                                                                 
  0.00000000E+00  0.00000000E+00  0.00000000E+00  0.00000000E+00  0.00000000E+00
  0.00000000E+00
%FLAG LENNARD_JONES_ACOEF                                                       
%FORMAT(5E16.8)                                                                 
  1.02073671E+06  7.18991463E+05  5.03152404E+05  1.00235148E+05  6.80216136E+04
  7.94617769E+03  6.97998263E+04  4.69084694E+04  5.22955465E+03  3.39005767E+03
  3.03553352E+02  1.74176419E+02  8.80612241E+00  4.36660257E+00  1.10360882E-05
%FLAG LENNARD_JONES_BCOEF                                                       
%FORMAT(5E16.8)                                                                 
  6.63431737E+02  5.36620538E+02  4.32634597E+02  1.37787728E+02  1.09393126E+02
  2.57122925E+01  1.14981426E+02  9.08431526E+01  2.08590256E+01  1.67944276E+01
  5.22789272E+00  3.81654050E+00  5.90150328E-01  4.15568027E-01  4.55498033E-04
%FLAG BONDS_INC_HYDROGEN                                                        
%FORMAT(10I8)                                                                   
       0      30       2       0      33       2       0      36       2       3
      39       4       3      42       4       6      45       4       6      48
       4       9      51       4       9      54       4      12      57       6
      15      60       4      15      63       4      18      66       4      21
      69       2      21      72       2      24      75       2      24      78
       2      27      81       8
%FLAG BONDS_WITHOUT_HYDROGEN                                                    
%FORMAT(10I8)                                                                   
       0      24       1       3       6       3       3      15       3       6
       9       3       9      12       3      12      27       5      12      18
       3      15      18       3      18      21       7      21      24       1
%FLAG ANGLES_INC_HYDROGEN                                                       
%FORMAT(10I8)                                                                   
       0      24      75       2       0      24      78       2       3       6
      45       4       3       6      48       4       3      15      60       4
       3      15      63       4       6       3      39       4       6       3
      42       4       6       9      51       4       6       9      54       4
       9       6      45       4       9       6      48       4       9      12
      57       6      12       9      51       4      12       9      54       4
      12      27      81       7      12      18      66       4      15       3
      39       4      15       3      42       4      15      18      66       4
      18      12      57       6      18      15      60       4      18      15
      63       4      18      21      69      10      18      21      72      10
      21      18      66      11      21      24      75       2      21      24
      78       2      24       0      30       2      24       0      33       2
      24       0      36       2      24      21      69       2      24      21
      72       2      27      12      57      12      30       0      33      13
      30       0      36      13      33       0      36      13      39       3
      42      14      45       6      48      14      51       9      54      14
      60      15      63      14      69      21      72      13      75      24
      78      13
%FLAG ANGLES_WITHOUT_HYDROGEN                                                   
%FORMAT(10I8)                                                                   
       0      24      21       1       3       6       9       3       3      15
      18       3       6       3      15       3       6       9      12       3
       9      12      27       5       9      12      18       3      12      18
      15       3      12      18      21       8      15      18      21       8
      18      12      27       5      18      21      24       9
%FLAG DIHEDRALS_INC_HYDROGEN                                                    
%FORMAT(10I8)                                                                   
       0      24      21      69       2       0      24      21      72       2
       3       6       9      51       2       3       6       9      54       2
       3      15      18      66       2       6       3      15      60       2
       6       3      15      63       2       6       9      12      57       4
       9       6       3      39       2       9       6       3      42       2
       9      12      27      81       5       9      12      18      66       2
      12       9       6      45       2      12       9       6      48       2
      12      18      15      60       2      12      18      15      63       2
      12      18      21      69       2      12      18      21      72       2
      15       3       6      45       2      15       3       6      48       2
      15      18      12      57       4      15      18      21      69       2
      15      18      21      72       2      18      12       9      51       2
      18      12       9      54       2      18      12      27      81       5
      18      15       3      39       2      18      15       3      42       2
      18      21      24      75       2      18      21      24      78       2
      21      18      12      57       4      21      18      15      60       2
      21      18      15      63       2      30       0      24      21       2
      33       0      24      21       2      36       0      24      21       2
      24      21      18      66       2      27      12       9      51       6
      27      12       9      54       6      27      12      18      66       6
      30       0      24      75       7      30       0      24      78       7
      33       0      24      75       7      33       0      24      78       7
      36       0      24      75       7      36       0      24      78       7
      39       3       6      45       7      39       3       6      48       7
      39       3      15      60       7      39       3      15      63       7
      42       3       6      45       7      42       3       6      48       7
      42       3      15      60       7      42       3      15      63       7
      45       6       9      51       7      45       6       9      54       7
      48       6       9      51       7      48       6       9      54       7
      51       9      12      57       4      54       9      12      57       4
      57      12      27      81       8      57      12      18      66       4
      60      15      18      66       7      63      15      18      66       7
      66      18      21      69       7      66      18      21      72       7
      69      21      24      75       7      69      21      24      78       7
      72      21      24      75       7      72      21      24      78       7
%FLAG DIHEDRALS_WITHOUT_HYDROGEN                                                
%FORMAT(10I8)                                                                   
       0      24      21      18       1       3       6       9      12       1
       3      15     -18      12       1       3      15      18      21       1
       6       3      15      18       1       6       9      12      27       3
       6       9     -12      18       1       9       6       3      15       1
       9      12     -18      15       1       9      12      18      21       1
      12      18      21      24       1      15      18      12      27       3
      15      18      21      24       1      21      18      12      27       3
%FLAG EXCLUDED_ATOMS_LIST                                                       
%FORMAT(10I8)                                                                   
       7       8       9      11      12      13      24      25      26      27
       3       4       5       6       7       8      14      15      16      17
      18      19      21      22      23       4       5       6       7      10
      14      15      16      17      18      19      20      21      22       5
       6       7       8      10      14      15      16      17      18      19
      20      23      28       6       7       8       9      10      16      17
      18      19      20      21      22      23      24      25      28       7
       8       9      10      14      15      16      17      20      21      22
      23      24      25       8       9      10      14      15      18      19
      20      21      22      23      24      25      26      27      28       9
      10      11      12      13      20      21      22      23      24      25
      26      27      11      12      13      23      24      25      26      27
      18      19      20      23      28      12      13      26      27      13
      26      27      26      27      15      16      17      21      22      16
      17      21      22      17      18      19      18      19      19      20
      20      23      28      22      23      23      24      25      25      26
      27      26      27      27       0       0
%FLAG HBOND_ACOEF                                                               
%FORMAT(5E16.8)                                                                 

%FLAG HBOND_BCOEF                                                               
%FORMAT(5E16.8)                                                                 

%FLAG HBCUT                                                                     
%FORMAT(5E16.8)                                                                 

%FLAG AMBER_ATOM_TYPE                                                           
%FORMAT(20a4)                                                                   
c3  c6  c6  c6  c6  c6  c6  c3  c3  oh  hc  hc  hc  hc  hc  hc  hc  hc  hc  h1  
hc  hc  hc  hc  hc  hc  hc  ho  
%FLAG TREE_CHAIN_CLASSIFICATION                                                 
%FORMAT(20a4)                                                                   
BLA BLA BLA BLA BLA BLA BLA BLA BLA BLA BLA BLA BLA BLA BLA BLA BLA BLA BLA BLA 
BLA BLA BLA BLA BLA BLA BLA BLA 
%FLAG JOIN_ARRAY                                                                
%FORMAT(10I8)                                                                   
       0       0       0       0       0       0       0       0       0       0
       0       0       0       0       0       0       0       0       0       0
       0       0       0       0       0       0       0       0
%FLAG IROTAT                                                                    
%FORMAT(10I8)                                                                   
       0       0       0       0       0       0       0       0       0       0
       0       0       0       0       0       0       0       0       0       0
       0       0       0       0       0       0       0       0
%FLAG RADIUS_SET                                                                
%FORMAT(1a80)                                                                   
modified Bondi radii (mbondi)                                                   
%FLAG RADII                                                                     
%FORMAT(5E16.8)                                                                 
  1.70000000E+00  1.70000000E+00  1.70000000E+00  1.70000000E+00  1.70000000E+00
  1.70000000E+00  1.70000000E+00  1.70000000E+00  1.70000000E+00  1.50000000E+00
  1.30000000E+00  1.30000000E+00  1.30000000E+00  1.30000000E+00  1.30000000E+00
  1.30000000E+00  1.30000000E+00  1.30000000E+00  1.30000000E+00  1.30000000E+00
  1.30000000E+00  1.30000000E+00  1.30000000E+00  1.30000000E+00  1.30000000E+00
  1.30000000E+00  1.30000000E+00  8.00000000E-01
%FLAG SCREEN                                                                    
%FORMAT(5E16.8)                                                                 
  7.20000000E-01  7.20000000E-01  7.20000000E-01  7.20000000E-01  7.20000000E-01
  7.20000000E-01  7.20000000E-01  7.20000000E-01  7.20000000E-01  8.50000000E-01
  8.50000000E-01  8.50000000E-01  8.50000000E-01  8.50000000E-01  8.50000000E-01
  8.50000000E-01  8.50000000E-01  8.50000000E-01  8.50000000E-01  8.50000000E-01
  8.50000000E-01  8.50000000E-01  8.50000000E-01  8.50000000E-01  8.50000000E-01
  8.50000000E-01  8.50000000E-01  8.50000000E-01
%FLAG IPOL                                                                      
%FORMAT(1I8)                                                                    
       0
