; jz4_GMX_OPLS.top created by acpype (v: 2023.10.27) on Tue Jul 28 11:49:19 2026

; Include forcefield parameters
#include "ffoplsaa.itp"

; Include jz4_GMX.itp topology
#include "jz4_GMX.itp"

; Ligand position restraints
#ifdef POSRES_LIG
#include "posre_jz4.itp"
#endif

[ system ]
 jz4

[ molecules ]
; Compound        nmols
 jz4              1     
