jz4_GMX.gro created by acpype (v: 2023.10.27) on Tue Jul 28 11:49:19 2026
 28
    1  UNL    C    1   2.433  -2.400  -0.013
    1  UNL   C1    2   2.136  -2.724  -0.420
    1  UNL   C2    3   2.198  -2.675  -0.550
    1  UNL   C3    4   2.297  -2.560  -0.532
    1  UNL   C4    5   2.241  -2.451  -0.441
    1  UNL   C5    6   2.197  -2.658  -0.296
    1  UNL   C6    7   2.190  -2.504  -0.305
    1  UNL   C7    8   2.246  -2.435  -0.179
    1  UNL   C8    9   2.390  -2.472  -0.140
    1  UNL    O   10   2.335  -2.345  -0.428
    1  UNL    H   11   2.536  -2.427   0.012
    1  UNL   H1   12   2.427  -2.292  -0.025
    1  UNL   H2   13   2.369  -2.429   0.071
    1  UNL   H3   14   2.028  -2.704  -0.422
    1  UNL   H4   15   2.148  -2.832  -0.412
    1  UNL   H5   16   2.249  -2.758  -0.601
    1  UNL   H6   17   2.118  -2.643  -0.618
    1  UNL   H7   18   2.391  -2.598  -0.491
    1  UNL   H8   19   2.324  -2.517  -0.630
    1  UNL   H9   20   2.155  -2.406  -0.493
    1  UNL  H10   21   2.143  -2.692  -0.207
    1  UNL  H11   22   2.300  -2.691  -0.286
    1  UNL  H12   23   2.082  -2.480  -0.304
    1  UNL  H13   24   2.238  -2.326  -0.190
    1  UNL  H14   25   2.181  -2.461  -0.094
    1  UNL  H15   26   2.460  -2.446  -0.221
    1  UNL  H16   27   2.399  -2.580  -0.123
    1  UNL  H17   28   2.423  -2.384  -0.419
   10.15200    10.81400    14.01400
