; jz4_GMX.itp created by acpype (v: 2023.10.27) on Tue Jul 28 11:49:19 2026

[ moleculetype ]
;name            nrexcl
 jz4              3

[ atoms ]
;   nr  type  resi  res  atom  cgnr     charge      mass       ; qtot   bond_type
     1   c3     1   UNL     C    1    -0.095100     12.01000 ; qtot -0.095
     2   c6     1   UNL    C1    2    -0.078400     12.01000 ; qtot -0.173
     3   c6     1   UNL    C2    3    -0.072400     12.01000 ; qtot -0.246
     4   c6     1   UNL    C3    4    -0.109400     12.01000 ; qtot -0.355
     5   c6     1   UNL    C4    5     0.146100     12.01000 ; qtot -0.209
     6   c6     1   UNL    C5    6    -0.073400     12.01000 ; qtot -0.283
     7   c6     1   UNL    C6    7    -0.088700     12.01000 ; qtot -0.371
     8   c3     1   UNL    C7    8    -0.080400     12.01000 ; qtot -0.452
     9   c3     1   UNL    C8    9    -0.082400     12.01000 ; qtot -0.534
    10   oh     1   UNL     O   10    -0.597801     16.00000 ; qtot -1.132
    11   hc     1   UNL     H   11     0.034367      1.00800 ; qtot -1.098
    12   hc     1   UNL    H1   12     0.034367      1.00800 ; qtot -1.063
    13   hc     1   UNL    H2   13     0.034367      1.00800 ; qtot -1.029
    14   hc     1   UNL    H3   14     0.040200      1.00800 ; qtot -0.989
    15   hc     1   UNL    H4   15     0.040200      1.00800 ; qtot -0.948
    16   hc     1   UNL    H5   16     0.040200      1.00800 ; qtot -0.908
    17   hc     1   UNL    H6   17     0.040200      1.00800 ; qtot -0.868
    18   hc     1   UNL    H7   18     0.046200      1.00800 ; qtot -0.822
    19   hc     1   UNL    H8   19     0.046200      1.00800 ; qtot -0.776
    20   h1     1   UNL    H9   20     0.070700      1.00800 ; qtot -0.705
    21   hc     1   UNL   H10   21     0.042700      1.00800 ; qtot -0.662
    22   hc     1   UNL   H11   22     0.042700      1.00800 ; qtot -0.619
    23   hc     1   UNL   H12   23     0.049700      1.00800 ; qtot -0.570
    24   hc     1   UNL   H13   24     0.048200      1.00800 ; qtot -0.522
    25   hc     1   UNL   H14   25     0.048200      1.00800 ; qtot -0.473
    26   hc     1   UNL   H15   26     0.037200      1.00800 ; qtot -0.436
    27   hc     1   UNL   H16   27     0.037200      1.00800 ; qtot -0.399
    28   ho     1   UNL   H17   28     0.399000      1.00800 ; qtot 0.000

[ bonds ]
;   ai     aj funct   r             k
     1      9   1    1.5354e-01    1.9154e+05 ;      C - C8    
     1     11   1    1.0962e-01    2.8891e+05 ;      C - H     
     1     12   1    1.0962e-01    2.8891e+05 ;      C - H1    
     1     13   1    1.0962e-01    2.8891e+05 ;      C - H2    
     2      3   1    1.5384e-01    1.8979e+05 ;     C1 - C2    
     2      6   1    1.5384e-01    1.8979e+05 ;     C1 - C5    
     2     14   1    1.0979e-01    2.8681e+05 ;     C1 - H3    
     2     15   1    1.0979e-01    2.8681e+05 ;     C1 - H4    
     3      4   1    1.5384e-01    1.8979e+05 ;     C2 - C3    
     3     16   1    1.0979e-01    2.8681e+05 ;     C2 - H5    
     3     17   1    1.0979e-01    2.8681e+05 ;     C2 - H6    
     4      5   1    1.5384e-01    1.8979e+05 ;     C3 - C4    
     4     18   1    1.0979e-01    2.8681e+05 ;     C3 - H7    
     4     19   1    1.0979e-01    2.8681e+05 ;     C3 - H8    
     5      7   1    1.5384e-01    1.8979e+05 ;     C4 - C6    
     5     10   1    1.4241e-01    2.3870e+05 ;     C4 - O     
     5     20   1    1.0984e-01    2.8620e+05 ;     C4 - H9    
     6      7   1    1.5384e-01    1.8979e+05 ;     C5 - C6    
     6     21   1    1.0979e-01    2.8681e+05 ;     C5 - H10   
     6     22   1    1.0979e-01    2.8681e+05 ;     C5 - H11   
     7      8   1    1.5428e-01    1.8728e+05 ;     C6 - C7    
     7     23   1    1.0979e-01    2.8681e+05 ;     C6 - H12   
     8      9   1    1.5354e-01    1.9154e+05 ;     C7 - C8    
     8     24   1    1.0962e-01    2.8891e+05 ;     C7 - H13   
     8     25   1    1.0962e-01    2.8891e+05 ;     C7 - H14   
     9     26   1    1.0962e-01    2.8891e+05 ;     C8 - H15   
     9     27   1    1.0962e-01    2.8891e+05 ;     C8 - H16   
    10     28   1    9.7250e-02    4.4811e+05 ;      O - H17   

[ pairs ]
;   ai     aj    funct
     1      7      1 ;      C - C6    
     1     24      1 ;      C - H13   
     1     25      1 ;      C - H14   
     2      5      1 ;     C1 - C4    
     2      8      1 ;     C1 - C7    
     2     18      1 ;     C1 - H7    
     2     19      1 ;     C1 - H8    
     2     23      1 ;     C1 - H12   
     3      7      1 ;     C2 - C6    
     3     10      1 ;     C2 - O     
     3     20      1 ;     C2 - H9    
     3     21      1 ;     C2 - H10   
     3     22      1 ;     C2 - H11   
     4      6      1 ;     C3 - C5    
     4      8      1 ;     C3 - C7    
     4     14      1 ;     C3 - H3    
     4     15      1 ;     C3 - H4    
     4     23      1 ;     C3 - H12   
     4     28      1 ;     C3 - H17   
     5      9      1 ;     C4 - C8    
     5     16      1 ;     C4 - H5    
     5     17      1 ;     C4 - H6    
     5     21      1 ;     C4 - H10   
     5     22      1 ;     C4 - H11   
     5     24      1 ;     C4 - H13   
     5     25      1 ;     C4 - H14   
     6      9      1 ;     C5 - C8    
     6     10      1 ;     C5 - O     
     6     16      1 ;     C5 - H5    
     6     17      1 ;     C5 - H6    
     6     20      1 ;     C5 - H9    
     6     24      1 ;     C5 - H13   
     6     25      1 ;     C5 - H14   
     7     14      1 ;     C6 - H3    
     7     15      1 ;     C6 - H4    
     7     18      1 ;     C6 - H7    
     7     19      1 ;     C6 - H8    
     7     26      1 ;     C6 - H15   
     7     27      1 ;     C6 - H16   
     7     28      1 ;     C6 - H17   
     8     10      1 ;     C7 - O     
     8     20      1 ;     C7 - H9    
     8     21      1 ;     C7 - H10   
     8     22      1 ;     C7 - H11   
     9     23      1 ;     C8 - H12   
    10     18      1 ;      O - H7    
    10     19      1 ;      O - H8    
    10     23      1 ;      O - H12   
    11      8      1 ;      H - C7    
    11     26      1 ;      H - H15   
    11     27      1 ;      H - H16   
    12      8      1 ;     H1 - C7    
    12     26      1 ;     H1 - H15   
    12     27      1 ;     H1 - H16   
    13      8      1 ;     H2 - C7    
    13     26      1 ;     H2 - H15   
    13     27      1 ;     H2 - H16   
    14     16      1 ;     H3 - H5    
    14     17      1 ;     H3 - H6    
    14     21      1 ;     H3 - H10   
    14     22      1 ;     H3 - H11   
    15     16      1 ;     H4 - H5    
    15     17      1 ;     H4 - H6    
    15     21      1 ;     H4 - H10   
    15     22      1 ;     H4 - H11   
    16     18      1 ;     H5 - H7    
    16     19      1 ;     H5 - H8    
    17     18      1 ;     H6 - H7    
    17     19      1 ;     H6 - H8    
    18     20      1 ;     H7 - H9    
    19     20      1 ;     H8 - H9    
    20     23      1 ;     H9 - H12   
    20     28      1 ;     H9 - H17   
    21     23      1 ;    H10 - H12   
    22     23      1 ;    H11 - H12   
    23     24      1 ;    H12 - H13   
    23     25      1 ;    H12 - H14   
    24     26      1 ;    H13 - H15   
    24     27      1 ;    H13 - H16   
    25     26      1 ;    H14 - H15   
    25     27      1 ;    H14 - H16   

[ angles ]
;   ai     aj     ak    funct   theta         cth
     1      9      8      1    1.1263e+02    5.0099e+02 ;      C - C8     - C7    
     1      9     26      1    1.0968e+02    3.6208e+02 ;      C - C8     - H15   
     1      9     27      1    1.0968e+02    3.6208e+02 ;      C - C8     - H16   
     2      3      4      1    1.1106e+02    5.0359e+02 ;     C1 - C2     - C3    
     2      3     16      1    1.0945e+02    3.6175e+02 ;     C1 - C2     - H5    
     2      3     17      1    1.0945e+02    3.6175e+02 ;     C1 - C2     - H6    
     2      6      7      1    1.1106e+02    5.0359e+02 ;     C1 - C5     - C6    
     2      6     21      1    1.0945e+02    3.6175e+02 ;     C1 - C5     - H10   
     2      6     22      1    1.0945e+02    3.6175e+02 ;     C1 - C5     - H11   
     3      2      6      1    1.1106e+02    5.0359e+02 ;     C2 - C1     - C5    
     3      2     14      1    1.0945e+02    3.6175e+02 ;     C2 - C1     - H3    
     3      2     15      1    1.0945e+02    3.6175e+02 ;     C2 - C1     - H4    
     3      4      5      1    1.1106e+02    5.0359e+02 ;     C2 - C3     - C4    
     3      4     18      1    1.0945e+02    3.6175e+02 ;     C2 - C3     - H7    
     3      4     19      1    1.0945e+02    3.6175e+02 ;     C2 - C3     - H8    
     4      3     16      1    1.0945e+02    3.6175e+02 ;     C3 - C2     - H5    
     4      3     17      1    1.0945e+02    3.6175e+02 ;     C3 - C2     - H6    
     4      5      7      1    1.1106e+02    5.0359e+02 ;     C3 - C4     - C6    
     4      5     10      1    1.1005e+02    6.4065e+02 ;     C3 - C4     - O     
     4      5     20      1    1.0918e+02    3.6217e+02 ;     C3 - C4     - H9    
     5      4     18      1    1.0945e+02    3.6175e+02 ;     C4 - C3     - H7    
     5      4     19      1    1.0945e+02    3.6175e+02 ;     C4 - C3     - H8    
     5      7      6      1    1.1106e+02    5.0359e+02 ;     C4 - C6     - C5    
     5      7      8      1    1.1143e+02    5.0200e+02 ;     C4 - C6     - C7    
     5      7     23      1    1.0945e+02    3.6175e+02 ;     C4 - C6     - H12   
     5     10     28      1    1.0707e+02    5.4584e+02 ;     C4 - O      - H17   
     6      2     14      1    1.0945e+02    3.6175e+02 ;     C5 - C1     - H3    
     6      2     15      1    1.0945e+02    3.6175e+02 ;     C5 - C1     - H4    
     6      7      8      1    1.1143e+02    5.0200e+02 ;     C5 - C6     - C7    
     6      7     23      1    1.0945e+02    3.6175e+02 ;     C5 - C6     - H12   
     7      5     10      1    1.1005e+02    6.4065e+02 ;     C6 - C4     - O     
     7      5     20      1    1.0918e+02    3.6217e+02 ;     C6 - C4     - H9    
     7      6     21      1    1.0945e+02    3.6175e+02 ;     C6 - C5     - H10   
     7      6     22      1    1.0945e+02    3.6175e+02 ;     C6 - C5     - H11   
     7      8      9      1    1.1393e+02    4.9698e+02 ;     C6 - C7     - C8    
     7      8     24      1    1.1063e+02    3.5890e+02 ;     C6 - C7     - H13   
     7      8     25      1    1.1063e+02    3.5890e+02 ;     C6 - C7     - H14   
     8      7     23      1    1.0746e+02    3.6418e+02 ;     C7 - C6     - H12   
     8      9     26      1    1.0968e+02    3.6208e+02 ;     C7 - C8     - H15   
     8      9     27      1    1.0968e+02    3.6208e+02 ;     C7 - C8     - H16   
     9      1     11      1    1.0968e+02    3.6208e+02 ;     C8 - C      - H     
     9      1     12      1    1.0968e+02    3.6208e+02 ;     C8 - C      - H1    
     9      1     13      1    1.0968e+02    3.6208e+02 ;     C8 - C      - H2    
     9      8     24      1    1.0968e+02    3.6208e+02 ;     C8 - C7     - H13   
     9      8     25      1    1.0968e+02    3.6208e+02 ;     C8 - C7     - H14   
    10      5     20      1    1.0996e+02    4.7187e+02 ;      O - C4     - H9    
    11      1     12      1    1.0773e+02    2.9957e+02 ;      H - C      - H1    
    11      1     13      1    1.0773e+02    2.9957e+02 ;      H - C      - H2    
    12      1     13      1    1.0773e+02    2.9957e+02 ;     H1 - C      - H2    
    14      2     15      1    1.0662e+02    3.0066e+02 ;     H3 - C1     - H4    
    16      3     17      1    1.0662e+02    3.0066e+02 ;     H5 - C2     - H6    
    18      4     19      1    1.0662e+02    3.0066e+02 ;     H7 - C3     - H8    
    21      6     22      1    1.0662e+02    3.0066e+02 ;    H10 - C5     - H11   
    24      8     25      1    1.0773e+02    2.9957e+02 ;    H13 - C7     - H14   
    26      9     27      1    1.0773e+02    2.9957e+02 ;    H15 - C8     - H16   

[ dihedrals ] ; propers
; for gromacs 4.5 or higher, using funct 9
;    i      j      k      l   func   phase     kd      pn
     1      9      8      7      9     0.00   2.17568   3 ;      C-    C8-    C7-    C6
     1      9      8     24      9     0.00   0.54392   3 ;      C-    C8-    C7-   H13
     1      9      8     25      9     0.00   0.54392   3 ;      C-    C8-    C7-   H14
     2      3      4      5      9     0.00   2.17568   3 ;     C1-    C2-    C3-    C4
     2      3      4     18      9     0.00   0.54392   3 ;     C1-    C2-    C3-    H7
     2      3      4     19      9     0.00   0.54392   3 ;     C1-    C2-    C3-    H8
     2      6      7      5      9     0.00   2.17568   3 ;     C1-    C5-    C6-    C4
     2      6      7      8      9     0.00   2.17568   3 ;     C1-    C5-    C6-    C7
     2      6      7     23      9     0.00   0.54392   3 ;     C1-    C5-    C6-   H12
     3      2      6      7      9     0.00   2.17568   3 ;     C2-    C1-    C5-    C6
     3      2      6     21      9     0.00   0.54392   3 ;     C2-    C1-    C5-   H10
     3      2      6     22      9     0.00   0.54392   3 ;     C2-    C1-    C5-   H11
     3      4      5      7      9     0.00   2.17568   3 ;     C2-    C3-    C4-    C6
     3      4      5     10      9     0.00   0.75312   3 ;     C2-    C3-    C4-     O
     3      4      5     20      9     0.00   0.65084   3 ;     C2-    C3-    C4-    H9
     4      3      2      6      9     0.00   2.17568   3 ;     C3-    C2-    C1-    C5
     4      3      2     14      9     0.00   0.54392   3 ;     C3-    C2-    C1-    H3
     4      3      2     15      9     0.00   0.54392   3 ;     C3-    C2-    C1-    H4
     4      5      7      6      9     0.00   2.17568   3 ;     C3-    C4-    C6-    C5
     4      5      7      8      9     0.00   2.17568   3 ;     C3-    C4-    C6-    C7
     4      5      7     23      9     0.00   0.54392   3 ;     C3-    C4-    C6-   H12
     4      5     10     28      9     0.00   0.25104   3 ;     C3-    C4-     O-   H17
     5      4      3     16      9     0.00   0.54392   3 ;     C4-    C3-    C2-    H5
     5      4      3     17      9     0.00   0.54392   3 ;     C4-    C3-    C2-    H6
     5      7      6     21      9     0.00   0.54392   3 ;     C4-    C6-    C5-   H10
     5      7      6     22      9     0.00   0.54392   3 ;     C4-    C6-    C5-   H11
     5      7      8      9      9     0.00   2.17568   3 ;     C4-    C6-    C7-    C8
     5      7      8     24      9     0.00   0.54392   3 ;     C4-    C6-    C7-   H13
     5      7      8     25      9     0.00   0.54392   3 ;     C4-    C6-    C7-   H14
     6      2      3     16      9     0.00   0.54392   3 ;     C5-    C1-    C2-    H5
     6      2      3     17      9     0.00   0.54392   3 ;     C5-    C1-    C2-    H6
     6      7      5     10      9     0.00   0.75312   3 ;     C5-    C6-    C4-     O
     6      7      5     20      9     0.00   0.65084   3 ;     C5-    C6-    C4-    H9
     6      7      8      9      9     0.00   2.17568   3 ;     C5-    C6-    C7-    C8
     6      7      8     24      9     0.00   0.54392   3 ;     C5-    C6-    C7-   H13
     6      7      8     25      9     0.00   0.54392   3 ;     C5-    C6-    C7-   H14
     7      5      4     18      9     0.00   0.54392   3 ;     C6-    C4-    C3-    H7
     7      5      4     19      9     0.00   0.54392   3 ;     C6-    C4-    C3-    H8
     7      5     10     28      9     0.00   0.25104   3 ;     C6-    C4-     O-   H17
     7      6      2     14      9     0.00   0.54392   3 ;     C6-    C5-    C1-    H3
     7      6      2     15      9     0.00   0.54392   3 ;     C6-    C5-    C1-    H4
     7      8      9     26      9     0.00   0.54392   3 ;     C6-    C7-    C8-   H15
     7      8      9     27      9     0.00   0.54392   3 ;     C6-    C7-    C8-   H16
     8      7      5     10      9     0.00   0.75312   3 ;     C7-    C6-    C4-     O
     8      7      5     20      9     0.00   0.65084   3 ;     C7-    C6-    C4-    H9
     8      7      6     21      9     0.00   0.54392   3 ;     C7-    C6-    C5-   H10
     8      7      6     22      9     0.00   0.54392   3 ;     C7-    C6-    C5-   H11
     9      8      7     23      9     0.00   0.54392   3 ;     C8-    C7-    C6-   H12
    10      5      4     18      9     0.00   0.37656   3 ;      O-    C4-    C3-    H7
    10      5      4     19      9     0.00   0.37656   3 ;      O-    C4-    C3-    H8
    10      5      7     23      9     0.00   0.37656   3 ;      O-    C4-    C6-   H12
    11      1      9      8      9     0.00   0.54392   3 ;      H-     C-    C8-    C7
    11      1      9     26      9     0.00   0.50208   3 ;      H-     C-    C8-   H15
    11      1      9     27      9     0.00   0.50208   3 ;      H-     C-    C8-   H16
    12      1      9      8      9     0.00   0.54392   3 ;     H1-     C-    C8-    C7
    12      1      9     26      9     0.00   0.50208   3 ;     H1-     C-    C8-   H15
    12      1      9     27      9     0.00   0.50208   3 ;     H1-     C-    C8-   H16
    13      1      9      8      9     0.00   0.54392   3 ;     H2-     C-    C8-    C7
    13      1      9     26      9     0.00   0.50208   3 ;     H2-     C-    C8-   H15
    13      1      9     27      9     0.00   0.50208   3 ;     H2-     C-    C8-   H16
    14      2      3     16      9     0.00   0.50208   3 ;     H3-    C1-    C2-    H5
    14      2      3     17      9     0.00   0.50208   3 ;     H3-    C1-    C2-    H6
    14      2      6     21      9     0.00   0.50208   3 ;     H3-    C1-    C5-   H10
    14      2      6     22      9     0.00   0.50208   3 ;     H3-    C1-    C5-   H11
    15      2      3     16      9     0.00   0.50208   3 ;     H4-    C1-    C2-    H5
    15      2      3     17      9     0.00   0.50208   3 ;     H4-    C1-    C2-    H6
    15      2      6     21      9     0.00   0.50208   3 ;     H4-    C1-    C5-   H10
    15      2      6     22      9     0.00   0.50208   3 ;     H4-    C1-    C5-   H11
    16      3      4     18      9     0.00   0.50208   3 ;     H5-    C2-    C3-    H7
    16      3      4     19      9     0.00   0.50208   3 ;     H5-    C2-    C3-    H8
    17      3      4     18      9     0.00   0.50208   3 ;     H6-    C2-    C3-    H7
    17      3      4     19      9     0.00   0.50208   3 ;     H6-    C2-    C3-    H8
    18      4      5     20      9     0.00   0.65084   3 ;     H7-    C3-    C4-    H9
    19      4      5     20      9     0.00   0.65084   3 ;     H8-    C3-    C4-    H9
    20      5      7     23      9     0.00   0.65084   3 ;     H9-    C4-    C6-   H12
    20      5     10     28      9     0.00   0.51463   3 ;     H9-    C4-     O-   H17
    21      6      7     23      9     0.00   0.50208   3 ;    H10-    C5-    C6-   H12
    22      6      7     23      9     0.00   0.50208   3 ;    H11-    C5-    C6-   H12
    23      7      8     24      9     0.00   0.50208   3 ;    H12-    C6-    C7-   H13
    23      7      8     25      9     0.00   0.50208   3 ;    H12-    C6-    C7-   H14
    24      8      9     26      9     0.00   0.50208   3 ;    H13-    C7-    C8-   H15
    24      8      9     27      9     0.00   0.50208   3 ;    H13-    C7-    C8-   H16
    25      8      9     26      9     0.00   0.50208   3 ;    H14-    C7-    C8-   H15
    25      8      9     27      9     0.00   0.50208   3 ;    H14-    C7-    C8-   H16
#ifdef POSRES
#include "posre_jz4.itp"
#endif
