; Topology file generated by 
; CHARMM General Force Field (CGenFF) program version 4.0
; For use with CGenFF topology and parameter files version 5.0
; Generated on 2026-07-23 10:12:48 (user = unknown)
;
; Include forcefield parameters
#include "./charmm36.ff/forcefield.itp"
;
; Include ligand specific parameters
# include "./charmm36.ff/jz4_ffbonded.itp"
;
[ moleculetype ]
; Name            nrexcl
Other               3
;
[ atoms ]
;   nr       type  resnr residue  atom   cgnr     charge       mass  typeB    chargeB      massB
; residue   1 jz4 rtp jz4  q +0.0
     1      CG331      1    jz4     C1      1      -0.27     12.011   ; qtot -0.27
     2      CG321      1    jz4     C2      2     -0.177     12.011   ; qtot -0.177
     3      CG321      1    jz4     C3      3     -0.176     12.011   ; qtot -0.176
     4      CG321      1    jz4     C4      4     -0.191     12.011   ; qtot -0.191
     5      CG311      1    jz4     C5      5      0.134     12.011   ; qtot 0.134
     6      CG321      1    jz4     C6      6     -0.186     12.011   ; qtot -0.186
     7      CG311      1    jz4     C7      7     -0.064     12.011   ; qtot -0.064
     8      CG321      1    jz4     C8      8     -0.199     12.011   ; qtot -0.199
     9      CG321      1    jz4     C9      9     -0.178     12.011   ; qtot -0.178
    10      OG311      1    jz4    O10     10     -0.644    15.9994   ; qtot -0.644
    11       HGA3      1    jz4    H11     11       0.09      1.008   ; qtot 0.09
    12       HGA3      1    jz4    H12     12       0.09      1.008   ; qtot 0.09
    13       HGA3      1    jz4    H13     13       0.09      1.008   ; qtot 0.09
    14       HGA2      1    jz4    H14     14       0.09      1.008   ; qtot 0.09
    15       HGA2      1    jz4    H15     15       0.09      1.008   ; qtot 0.09
    16       HGA2      1    jz4    H16     16       0.09      1.008   ; qtot 0.09
    17       HGA2      1    jz4    H17     17       0.09      1.008   ; qtot 0.09
    18       HGA2      1    jz4    H18     18       0.09      1.008   ; qtot 0.09
    19       HGA2      1    jz4    H19     19       0.09      1.008   ; qtot 0.09
    20       HGA1      1    jz4    H20     20       0.09      1.008   ; qtot 0.09
    21       HGA2      1    jz4    H21     21       0.09      1.008   ; qtot 0.09
    22       HGA2      1    jz4    H22     22       0.09      1.008   ; qtot 0.09
    23       HGA1      1    jz4    H23     23       0.09      1.008   ; qtot 0.09
    24       HGA2      1    jz4    H24     24       0.09      1.008   ; qtot 0.09
    25       HGA2      1    jz4    H25     25       0.09      1.008   ; qtot 0.09
    26       HGA2      1    jz4    H26     26       0.09      1.008   ; qtot 0.09
    27       HGA2      1    jz4    H27     27       0.09      1.008   ; qtot 0.09
    28       HGP1      1    jz4    H28     28      0.421      1.008   ; qtot 0.421

[ bonds ]
;  ai    aj funct            c0            c1            c2            c3
    1     9     1
    1    11     1
    1    12     1
    1    13     1
    2     3     1
    2     6     1
    2    14     1
    2    15     1
    3     4     1
    3    16     1
    3    17     1
    4     5     1
    4    18     1
    4    19     1
    5    10     1
    5     7     1
    5    20     1
    6     7     1
    6    21     1
    6    22     1
    7     8     1
    7    23     1
    8     9     1
    8    24     1
    8    25     1
    9    26     1
    9    27     1
   10    28     1

[ pairs ]
;  ai    aj funct            c0            c1            c2            c3
    1     7     1
    1    24     1
    1    25     1
    2     5     1
    2     8     1
    2    18     1
    2    19     1
    2    23     1
    3     7     1
    3    10     1
    3    20     1
    3    21     1
    3    22     1
    4     6     1
    4     8     1
    4    14     1
    4    15     1
    4    23     1
    4    28     1
    5     9     1
    5    16     1
    5    17     1
    5    21     1
    5    22     1
    5    24     1
    5    25     1
    6     9     1
    6    10     1
    6    16     1
    6    17     1
    6    20     1
    6    24     1
    6    25     1
    7    14     1
    7    15     1
    7    18     1
    7    19     1
    7    26     1
    7    27     1
    7    28     1
    8    10     1
    8    11     1
    8    12     1
    8    13     1
    8    20     1
    8    21     1
    8    22     1
    9    23     1
   10    18     1
   10    19     1
   10    23     1
   11    26     1
   11    27     1
   12    26     1
   12    27     1
   13    26     1
   13    27     1
   14    16     1
   14    17     1
   14    21     1
   14    22     1
   15    16     1
   15    17     1
   15    21     1
   15    22     1
   16    18     1
   16    19     1
   17    18     1
   17    19     1
   18    20     1
   19    20     1
   20    23     1
   20    28     1
   21    23     1
   22    23     1
   23    24     1
   23    25     1
   24    26     1
   24    27     1
   25    26     1
   25    27     1

[ angles ]
;  ai    aj    ak funct            c0            c1            c2            c3
    9     1    11     5
    9     1    12     5
    9     1    13     5
   11     1    12     5
   11     1    13     5
   12     1    13     5
    3     2     6     5
    3     2    14     5
    3     2    15     5
    6     2    14     5
    6     2    15     5
   14     2    15     5
    2     3     4     5
    2     3    16     5
    2     3    17     5
    4     3    16     5
    4     3    17     5
   16     3    17     5
    3     4     5     5
    3     4    18     5
    3     4    19     5
    5     4    18     5
    5     4    19     5
   18     4    19     5
    4     5    10     5
    4     5     7     5
    4     5    20     5
   10     5     7     5
   10     5    20     5
    7     5    20     5
    2     6     7     5
    2     6    21     5
    2     6    22     5
    7     6    21     5
    7     6    22     5
   21     6    22     5
    5     7     6     5
    5     7     8     5
    5     7    23     5
    6     7     8     5
    6     7    23     5
    8     7    23     5
    7     8     9     5
    7     8    24     5
    7     8    25     5
    9     8    24     5
    9     8    25     5
   24     8    25     5
    1     9     8     5
    1     9    26     5
    1     9    27     5
    8     9    26     5
    8     9    27     5
   26     9    27     5
    5    10    28     5

[ dihedrals ]
;  ai    aj    ak    al funct            c0            c1            c2            c3            c4            c5
   11     1     9     8     9
   11     1     9    26     9
   11     1     9    27     9
   12     1     9     8     9
   12     1     9    26     9
   12     1     9    27     9
   13     1     9     8     9
   13     1     9    26     9
   13     1     9    27     9
    6     2     3     4     9
    6     2     3    16     9
    6     2     3    17     9
   14     2     3     4     9
   14     2     3    16     9
   14     2     3    17     9
   15     2     3     4     9
   15     2     3    16     9
   15     2     3    17     9
    3     2     6     7     9
    3     2     6    21     9
    3     2     6    22     9
   14     2     6     7     9
   14     2     6    21     9
   14     2     6    22     9
   15     2     6     7     9
   15     2     6    21     9
   15     2     6    22     9
    2     3     4     5     9
    2     3     4    18     9
    2     3     4    19     9
   16     3     4     5     9
   16     3     4    18     9
   16     3     4    19     9
   17     3     4     5     9
   17     3     4    18     9
   17     3     4    19     9
    3     4     5    10     9
    3     4     5     7     9
    3     4     5    20     9
   18     4     5    10     9
   18     4     5     7     9
   18     4     5    20     9
   19     4     5    10     9
   19     4     5     7     9
   19     4     5    20     9
    4     5    10    28     9
    7     5    10    28     9
   20     5    10    28     9
    4     5     7     6     9
    4     5     7     8     9
    4     5     7    23     9
   10     5     7     6     9
   10     5     7     8     9
   10     5     7    23     9
   20     5     7     6     9
   20     5     7     8     9
   20     5     7    23     9
    2     6     7     5     9
    2     6     7     8     9
    2     6     7    23     9
   21     6     7     5     9
   21     6     7     8     9
   21     6     7    23     9
   22     6     7     5     9
   22     6     7     8     9
   22     6     7    23     9
    5     7     8     9     9
    5     7     8    24     9
    5     7     8    25     9
    6     7     8     9     9
    6     7     8    24     9
    6     7     8    25     9
   23     7     8     9     9
   23     7     8    24     9
   23     7     8    25     9
    7     8     9     1     9
    7     8     9    26     9
    7     8     9    27     9
   24     8     9     1     9
   24     8     9    26     9
   24     8     9    27     9
   25     8     9     1     9
   25     8     9    26     9
   25     8     9    27     9



; Include Position restraint file
#ifdef POSRES
#include "posre.itp"
#endif

; Include water topology
#include "./charmm36.ff/tip3p.itp"

#ifdef POSRES_WATER
; Position restraint for each water oxygen
[ position_restraints ]
;  i funct       fcx        fcy        fcz
   1    1       1000       1000       1000
#endif

; Include topology for ions
#include "./charmm36.ff/ions.itp"

[ system ]
; Name
    Ligand

[ molecules ]
; Compound        #mols
Other           1
