Giant Rising Ordinary Mutants for A Clerical Setup
   28
    1jz4     C1    1   2.429  -2.412  -0.007
    1jz4     C2    2   2.155  -2.721  -0.411
    1jz4     C3    3   2.207  -2.675  -0.533
    1jz4     C4    4   2.267  -2.551  -0.545
    1jz4     C5    5   2.277  -2.473  -0.430
    1jz4     C6    6   2.169  -2.646  -0.295
    1jz4     C7    7   2.229  -2.519  -0.308
    1jz4     C8    8   2.246  -2.441  -0.181
    1jz4     C9    9   2.392  -2.470  -0.139
    1jz4    O10   10   2.341  -2.354  -0.434
    1jz4    H11   11   2.531  -2.436   0.015
    1jz4    H12   12   2.417  -2.306  -0.010
    1jz4    H13   13   2.366  -2.453   0.069
    1jz4    H14   14   2.050  -2.736  -0.426
    1jz4    H15   15   2.215  -2.808  -0.391
    1jz4    H16   16   2.280  -2.747  -0.564
    1jz4    H17   17   2.118  -2.662  -0.591
    1jz4    H18   18   2.366  -2.567  -0.581
    1jz4    H19   19   2.203  -2.496  -0.610
    1jz4    H20   20   2.176  -2.457  -0.462
    1jz4    H21   21   2.072  -2.631  -0.255
    1jz4    H22   22   2.237  -2.702  -0.234
    1jz4    H23   23   2.190  -2.448  -0.378
    1jz4    H24   24   2.231  -2.337  -0.198
    1jz4    H25   25   2.176  -2.469  -0.105
    1jz4    H26   26   2.458  -2.429  -0.214
    1jz4    H27   27   2.402  -2.577  -0.131
    1jz4    H28   28   2.431  -2.365  -0.406
   0.00000   0.00000   0.00000
